# Residuals   
# Time        	rhoIon        	UIonx         	UIony         	UIonz         
1e-08         	6.745264e-04	1.000000e+00	1.000000e+00	1.000000e+00
2.4985e-08    	1.408732e-03	5.221928e-02	6.605975e-02	8.163151e-01
4.7395e-08    	2.614119e-03	5.913507e-02	2.127058e-02	8.384507e-01
8.08585e-08   	4.837506e-03	2.939908e-02	2.932274e-02	8.818149e-01
1.31054e-07   	9.102867e-03	4.285174e-02	4.317511e-02	9.157268e-01
1.81249e-07   	1.156144e-02	4.289993e-02	4.326683e-02	9.157607e-01
2.31444e-07   	1.405494e-02	4.299816e-02	4.343070e-02	9.158378e-01
2.8164e-07    	1.647770e-02	4.310073e-02	4.359391e-02	9.159545e-01
3.26577e-07   	1.679748e-02	3.886966e-02	3.938006e-02	9.079396e-01
3.66865e-07   	1.649337e-02	3.508310e-02	3.559433e-02	8.992989e-01
4.03061e-07   	1.601004e-02	3.170651e-02	3.220590e-02	8.900556e-01
4.35434e-07   	1.514364e-02	2.851274e-02	2.899616e-02	8.795323e-01
4.64508e-07   	1.422419e-02	2.573467e-02	2.619607e-02	8.685031e-01
4.90574e-07   	1.329205e-02	2.317071e-02	2.360648e-02	8.563313e-01
5.13938e-07   	1.225874e-02	2.085787e-02	2.126559e-02	8.431104e-01
5.37303e-07   	1.257090e-02	2.090359e-02	2.132029e-02	8.432190e-01
5.60668e-07   	1.291785e-02	2.094743e-02	2.137937e-02	8.433100e-01
5.84033e-07   	1.322196e-02	2.099914e-02	2.144880e-02	8.433835e-01
6.05062e-07   	1.213588e-02	1.899166e-02	1.941981e-02	8.295974e-01
6.2609e-07    	1.238491e-02	1.904431e-02	1.949322e-02	8.296246e-01
6.47118e-07   	1.261845e-02	1.910949e-02	1.958098e-02	8.296267e-01
6.68147e-07   	1.278299e-02	1.916176e-02	1.965346e-02	8.296028e-01
6.89175e-07   	1.298786e-02	1.922982e-02	1.974183e-02	8.295510e-01
7.08082e-07   	1.188649e-02	1.739221e-02	1.787525e-02	8.144590e-01
7.2699e-07    	1.202666e-02	1.746054e-02	1.795306e-02	8.143497e-01
7.45897e-07   	1.215558e-02	1.752020e-02	1.804710e-02	8.142091e-01
7.64804e-07   	1.231414e-02	1.760178e-02	1.814216e-02	8.140383e-01
7.83711e-07   	1.246373e-02	1.770060e-02	1.826718e-02	8.138355e-01
8.02618e-07   	1.256430e-02	1.783211e-02	1.843182e-02	8.135992e-01
8.21525e-07   	1.269997e-02	1.795234e-02	1.857504e-02	8.133266e-01
8.40432e-07   	1.285085e-02	1.810229e-02	1.872728e-02	8.130159e-01
8.5741e-07    	1.163001e-02	1.644724e-02	1.701976e-02	7.962623e-01
8.74388e-07   	1.170849e-02	1.658198e-02	1.718261e-02	7.958914e-01
8.91366e-07   	1.181325e-02	1.672748e-02	1.734109e-02	7.954860e-01
9.08344e-07   	1.191894e-02	1.690391e-02	1.755515e-02	7.950435e-01
9.25321e-07   	1.198042e-02	1.714235e-02	1.779070e-02	7.945669e-01
9.42299e-07   	1.205963e-02	1.737291e-02	1.799790e-02	7.940533e-01
9.59277e-07   	1.215295e-02	1.764637e-02	1.826848e-02	7.935033e-01
9.76255e-07   	1.224247e-02	1.797810e-02	1.853748e-02	7.929124e-01
9.93233e-07   	1.228749e-02	1.817089e-02	1.879066e-02	7.922825e-01
1.01021e-06   	1.236540e-02	1.841831e-02	1.915038e-02	7.916106e-01
1.02719e-06   	1.245543e-02	1.863042e-02	1.949487e-02	7.909002e-01
1.04417e-06   	1.251791e-02	1.890141e-02	1.985081e-02	7.901479e-01
1.06114e-06   	1.256318e-02	1.911290e-02	2.015569e-02	7.893514e-01
1.07812e-06   	1.264207e-02	1.939856e-02	2.050197e-02	7.885093e-01
1.0951e-06    	1.271630e-02	1.981968e-02	2.091971e-02	7.876306e-01
1.11035e-06   	1.145305e-02	1.824958e-02	1.923818e-02	7.686921e-01
1.12561e-06   	1.150170e-02	1.842947e-02	1.953437e-02	7.677977e-01
1.14086e-06   	1.156066e-02	1.874612e-02	1.983383e-02	7.668768e-01
1.15611e-06   	1.161555e-02	1.900483e-02	2.006595e-02	7.659357e-01
1.17137e-06   	1.163465e-02	1.925284e-02	2.048870e-02	7.649826e-01
1.18662e-06   	1.167789e-02	1.943682e-02	2.089081e-02	7.640216e-01
1.20187e-06   	1.173179e-02	1.959275e-02	2.108420e-02	7.630556e-01
1.21713e-06   	1.177780e-02	1.976740e-02	2.143055e-02	7.620842e-01
1.23238e-06   	1.179150e-02	1.984992e-02	2.168500e-02	7.611104e-01
1.24763e-06   	1.182747e-02	1.997472e-02	2.208351e-02	7.601346e-01
1.26289e-06   	1.188015e-02	2.016075e-02	2.244600e-02	7.591561e-01
1.27814e-06   	1.191866e-02	2.057684e-02	2.272467e-02	7.581759e-01
1.2934e-06    	1.192786e-02	2.097511e-02	2.330131e-02	7.571918e-01
1.30865e-06   	1.196705e-02	2.118525e-02	2.384910e-02	7.562005e-01
1.3239e-06    	1.201427e-02	2.139755e-02	2.415684e-02	7.552094e-01
1.33916e-06   	1.204774e-02	2.167549e-02	2.437281e-02	7.542193e-01
1.35441e-06   	1.205197e-02	2.181461e-02	2.464528e-02	7.532238e-01
1.36966e-06   	1.208051e-02	2.193364e-02	2.520253e-02	7.522290e-01
1.38492e-06   	1.212278e-02	2.240198e-02	2.564041e-02	7.512299e-01
1.40017e-06   	1.214995e-02	2.255909e-02	2.614939e-02	7.502270e-01
1.41542e-06   	1.215265e-02	2.293044e-02	2.672051e-02	7.492215e-01
1.43068e-06   	1.218322e-02	2.315707e-02	2.681084e-02	7.482110e-01
1.44593e-06   	1.221925e-02	2.354315e-02	2.709886e-02	7.471896e-01
1.46118e-06   	1.223645e-02	2.416452e-02	2.766666e-02	7.461597e-01
1.47644e-06   	1.224250e-02	2.422323e-02	2.760475e-02	7.451214e-01
1.49169e-06   	1.226351e-02	2.464476e-02	2.836218e-02	7.440731e-01
1.50694e-06   	1.229425e-02	2.531690e-02	2.875501e-02	7.430138e-01
1.5222e-06    	1.229512e-02	2.576358e-02	2.984131e-02	7.419362e-01
1.53745e-06   	1.231502e-02	2.616145e-02	3.022204e-02	7.408483e-01
1.55271e-06   	1.233475e-02	2.641041e-02	3.125519e-02	7.397421e-01
1.56638e-06   	1.108355e-02	2.434874e-02	2.769174e-02	7.175933e-01
1.58006e-06   	1.107827e-02	2.461258e-02	2.829157e-02	7.165357e-01
1.59374e-06   	1.109735e-02	2.443541e-02	2.841820e-02	7.154755e-01
1.60742e-06   	1.110668e-02	2.479558e-02	2.846293e-02	7.144142e-01
1.6211e-06    	1.112501e-02	2.516068e-02	2.875620e-02	7.133292e-01
1.63478e-06   	1.112723e-02	2.533296e-02	2.898136e-02	7.122264e-01
1.64846e-06   	1.113464e-02	2.582310e-02	2.979725e-02	7.111065e-01
1.66214e-06   	1.114942e-02	2.634979e-02	3.023836e-02	7.099721e-01
1.67582e-06   	1.116548e-02	2.721009e-02	3.075923e-02	7.088223e-01
1.6895e-06    	1.117435e-02	2.760005e-02	3.107562e-02	7.076605e-01
1.70318e-06   	1.117281e-02	2.815423e-02	3.172353e-02	7.064798e-01
1.71686e-06   	1.119091e-02	2.821821e-02	3.202326e-02	7.052672e-01
1.73054e-06   	1.120310e-02	2.861257e-02	3.230335e-02	7.040373e-01
1.74422e-06   	1.120947e-02	2.905698e-02	3.295949e-02	7.027811e-01
1.7579e-06    	1.120338e-02	2.944197e-02	3.311878e-02	7.014985e-01
1.77158e-06   	1.122176e-02	2.971101e-02	3.382246e-02	7.001896e-01
1.78526e-06   	1.122858e-02	2.996846e-02	3.387380e-02	6.988558e-01
1.79894e-06   	1.123888e-02	3.067575e-02	3.459010e-02	6.974903e-01
1.81262e-06   	1.122873e-02	3.092992e-02	3.497875e-02	6.960933e-01
1.8263e-06    	1.124356e-02	3.115200e-02	3.498531e-02	6.946671e-01
1.83998e-06   	1.124288e-02	3.210436e-02	3.580333e-02	6.932127e-01
1.85366e-06   	1.124847e-02	3.206068e-02	3.603455e-02	6.917204e-01
1.86734e-06   	1.123766e-02	3.350608e-02	3.681653e-02	6.901944e-01
1.88102e-06   	1.125015e-02	3.367671e-02	3.729689e-02	6.886453e-01
1.8947e-06    	1.125296e-02	3.343219e-02	3.730438e-02	6.870524e-01
1.90838e-06   	1.125884e-02	3.403731e-02	3.797276e-02	6.854119e-01
1.92206e-06   	1.125106e-02	3.514385e-02	3.851370e-02	6.837066e-01
1.93574e-06   	1.125706e-02	3.524154e-02	3.842609e-02	6.819755e-01
1.94942e-06   	1.126474e-02	3.497005e-02	3.882167e-02	6.802148e-01
1.9631e-06    	1.126985e-02	3.549665e-02	3.857200e-02	6.784167e-01
1.97678e-06   	1.126478e-02	3.528175e-02	3.884924e-02	6.765846e-01
1.99046e-06   	1.126098e-02	3.640226e-02	4.043767e-02	6.747214e-01
2.00414e-06   	1.126664e-02	3.754947e-02	4.164618e-02	6.727810e-01
2.01782e-06   	1.127153e-02	3.780667e-02	4.191607e-02	6.707797e-01
2.0315e-06    	1.126923e-02	3.847870e-02	4.259227e-02	6.687506e-01
2.04518e-06   	1.126113e-02	3.779145e-02	4.289825e-02	6.667059e-01
2.05886e-06   	1.126913e-02	3.786985e-02	4.279593e-02	6.646083e-01
2.07254e-06   	1.126880e-02	3.793407e-02	4.303802e-02	6.624649e-01
2.08622e-06   	1.126661e-02	3.878058e-02	4.316524e-02	6.602734e-01
2.09989e-06   	1.125551e-02	3.950176e-02	4.391197e-02	6.580037e-01
2.11357e-06   	1.125275e-02	3.934060e-02	4.435723e-02	6.556742e-01
2.12725e-06   	1.124891e-02	3.904282e-02	4.530653e-02	6.532589e-01
2.14093e-06   	1.124812e-02	3.908984e-02	4.472198e-02	6.507787e-01
2.15461e-06   	1.123529e-02	4.030439e-02	4.556432e-02	6.482250e-01
2.16829e-06   	1.124060e-02	4.030487e-02	4.631929e-02	6.455634e-01
2.18197e-06   	1.123976e-02	4.104946e-02	4.678883e-02	6.427851e-01
2.19565e-06   	1.123936e-02	4.196559e-02	4.739143e-02	6.399040e-01
2.20933e-06   	1.122731e-02	4.128479e-02	4.762423e-02	6.369475e-01
2.22301e-06   	1.122480e-02	4.166140e-02	4.749864e-02	6.338793e-01
2.23669e-06   	1.122190e-02	4.192756e-02	4.835557e-02	6.307256e-01
2.25037e-06   	1.122259e-02	4.171856e-02	4.879077e-02	6.274841e-01
2.26405e-06   	1.121697e-02	4.221111e-02	4.857741e-02	6.241491e-01
2.27773e-06   	1.120851e-02	4.237446e-02	4.847512e-02	6.207036e-01
2.29141e-06   	1.120637e-02	4.307289e-02	5.038021e-02	6.171079e-01
2.30509e-06   	1.120681e-02	4.334811e-02	5.032545e-02	6.134054e-01
2.31877e-06   	1.120456e-02	4.369053e-02	5.160169e-02	6.095383e-01
2.33245e-06   	1.119089e-02	4.540523e-02	5.311136e-02	6.054946e-01
2.34613e-06   	1.118270e-02	4.720332e-02	5.302748e-02	6.013695e-01
2.35981e-06   	1.117889e-02	4.635039e-02	5.321458e-02	5.971888e-01
2.37349e-06   	1.117833e-02	4.575065e-02	5.398896e-02	5.929037e-01
2.38717e-06   	1.116322e-02	4.533997e-02	5.460406e-02	5.884288e-01
2.40085e-06   	1.114930e-02	4.693567e-02	5.447428e-02	5.838241e-01
2.41453e-06   	1.114620e-02	4.625387e-02	5.520401e-02	5.790977e-01
2.42821e-06   	1.114644e-02	4.455469e-02	5.402735e-02	5.743046e-01
2.44189e-06   	1.112897e-02	4.573054e-02	5.447671e-02	5.694131e-01
2.45557e-06   	1.112410e-02	4.630214e-02	5.488891e-02	5.643495e-01
2.46925e-06   	1.111521e-02	4.577510e-02	5.541994e-02	5.591702e-01
2.48293e-06   	1.111741e-02	4.665642e-02	5.528424e-02	5.538194e-01
2.49661e-06   	1.109904e-02	4.726248e-02	5.587159e-02	5.483681e-01
2.51029e-06   	1.109399e-02	4.780021e-02	5.598830e-02	5.428149e-01
2.52397e-06   	1.108722e-02	4.783553e-02	5.609374e-02	5.371627e-01
2.53765e-06   	1.108969e-02	4.957870e-02	5.722669e-02	5.314520e-01
2.55133e-06   	1.107726e-02	5.037035e-02	5.752282e-02	5.256463e-01
2.56501e-06   	1.106627e-02	5.038849e-02	5.746368e-02	5.199135e-01
2.57869e-06   	1.105308e-02	4.890474e-02	5.760040e-02	5.141111e-01
2.59237e-06   	1.105579e-02	4.885964e-02	5.758274e-02	5.082504e-01
2.60605e-06   	1.104745e-02	5.035615e-02	5.857435e-02	5.022295e-01
2.61973e-06   	1.103347e-02	5.017022e-02	5.913644e-02	4.962477e-01
2.6334e-06    	1.102169e-02	4.970808e-02	5.936347e-02	4.901910e-01
2.64708e-06   	1.102016e-02	4.942115e-02	5.860181e-02	4.840913e-01
2.66076e-06   	1.101307e-02	4.964770e-02	5.794067e-02	4.779453e-01
2.67444e-06   	1.099666e-02	4.992917e-02	5.916390e-02	4.716734e-01
2.68812e-06   	1.097549e-02	5.078838e-02	6.057804e-02	4.653600e-01
2.7018e-06    	1.097238e-02	5.100311e-02	5.970100e-02	4.590671e-01
2.71548e-06   	1.096757e-02	5.125383e-02	6.124888e-02	4.527492e-01
2.72916e-06   	1.094967e-02	5.122583e-02	6.163444e-02	4.464289e-01
2.74284e-06   	1.094539e-02	5.142661e-02	6.262827e-02	4.401274e-01
2.75652e-06   	1.093807e-02	5.123721e-02	6.205325e-02	4.339084e-01
2.7702e-06    	1.093507e-02	5.184520e-02	6.249095e-02	4.277515e-01
2.78388e-06   	1.091505e-02	5.199612e-02	6.189806e-02	4.216581e-01
2.79756e-06   	1.091058e-02	5.189629e-02	6.227072e-02	4.156527e-01
2.81124e-06   	1.089604e-02	5.159254e-02	6.193369e-02	4.096336e-01
2.82492e-06   	1.089359e-02	5.200298e-02	6.271475e-02	4.034580e-01
2.8386e-06    	1.088092e-02	5.079056e-02	6.153305e-02	3.974270e-01
2.85228e-06   	1.087276e-02	5.270373e-02	6.464904e-02	3.913203e-01
2.86596e-06   	1.086006e-02	5.190126e-02	6.493707e-02	3.852430e-01
2.87964e-06   	1.085760e-02	5.177179e-02	6.462174e-02	3.791422e-01
2.89332e-06   	1.084557e-02	5.047198e-02	6.257789e-02	3.731909e-01
2.907e-06     	1.083543e-02	5.174446e-02	6.352082e-02	3.672390e-01
2.92068e-06   	1.081545e-02	5.213053e-02	6.391456e-02	3.612952e-01
2.93436e-06   	1.080750e-02	5.263439e-02	6.247112e-02	3.554130e-01
2.94804e-06   	1.079803e-02	5.391895e-02	6.419652e-02	3.495222e-01
2.96172e-06   	1.078636e-02	5.281703e-02	6.375602e-02	3.435893e-01
2.9754e-06    	1.077154e-02	5.225060e-02	6.321678e-02	3.378079e-01
2.98908e-06   	1.076378e-02	5.313234e-02	6.436747e-02	3.321314e-01
3.00276e-06   	1.075627e-02	5.329703e-02	6.442371e-02	3.264983e-01
3.01644e-06   	1.074244e-02	5.413043e-02	6.459178e-02	3.209166e-01
3.03012e-06   	1.073663e-02	5.426604e-02	6.514153e-02	3.153377e-01
3.0438e-06    	1.071892e-02	5.466281e-02	6.540287e-02	3.098373e-01
3.05748e-06   	1.071362e-02	5.467413e-02	6.504046e-02	3.044674e-01
3.07116e-06   	1.070122e-02	5.387718e-02	6.521582e-02	2.991766e-01
3.08484e-06   	1.069620e-02	5.517911e-02	6.691872e-02	2.939228e-01
3.09852e-06   	1.067923e-02	5.612957e-02	6.613133e-02	2.888045e-01
3.1122e-06    	1.067424e-02	5.510150e-02	6.581218e-02	2.837238e-01
3.12588e-06   	1.066519e-02	5.478903e-02	6.575276e-02	2.787103e-01
3.13956e-06   	1.065692e-02	5.411742e-02	6.544366e-02	2.737947e-01
3.15323e-06   	1.063515e-02	5.352227e-02	6.507127e-02	2.688639e-01
3.16691e-06   	1.062955e-02	5.344239e-02	6.596600e-02	2.639880e-01
3.18059e-06   	1.062264e-02	5.278756e-02	6.494803e-02	2.591375e-01
3.19427e-06   	1.061306e-02	5.145529e-02	6.433391e-02	2.543521e-01
3.20795e-06   	1.058980e-02	5.311914e-02	6.538838e-02	2.496230e-01
3.22163e-06   	1.058278e-02	5.344990e-02	6.578516e-02	2.450613e-01
3.23531e-06   	1.057737e-02	5.394271e-02	6.612940e-02	2.404961e-01
3.24899e-06   	1.056555e-02	5.297845e-02	6.496297e-02	2.360910e-01
3.26267e-06   	1.054862e-02	5.270152e-02	6.534425e-02	2.316802e-01
3.27635e-06   	1.053321e-02	5.305650e-02	6.600975e-02	2.273144e-01
3.29003e-06   	1.053181e-02	5.317621e-02	6.688026e-02	2.230740e-01
3.30371e-06   	1.051792e-02	5.350393e-02	6.675059e-02	2.189269e-01
3.31739e-06   	1.051018e-02	5.300020e-02	6.539245e-02	2.148008e-01
3.33107e-06   	1.049195e-02	5.315582e-02	6.672312e-02	2.107443e-01
3.34475e-06   	1.049077e-02	5.366080e-02	6.738837e-02	2.068022e-01
3.35843e-06   	1.048061e-02	5.192136e-02	6.547712e-02	2.029099e-01
3.37211e-06   	1.047098e-02	5.094926e-02	6.488317e-02	1.990691e-01
3.38579e-06   	1.044741e-02	5.182791e-02	6.567776e-02	1.952913e-01
3.39947e-06   	1.044718e-02	5.189598e-02	6.563617e-02	1.917106e-01
3.41315e-06   	1.043715e-02	5.198910e-02	6.561687e-02	1.879965e-01
3.42683e-06   	1.042785e-02	5.233663e-02	6.595105e-02	1.842713e-01
3.44051e-06   	1.040741e-02	5.180549e-02	6.624673e-02	1.807555e-01
3.45419e-06   	1.040618e-02	5.298655e-02	6.604866e-02	1.772755e-01
3.46787e-06   	1.039728e-02	5.117702e-02	6.479868e-02	1.738288e-01
3.48155e-06   	1.038552e-02	5.041971e-02	6.457506e-02	1.703917e-01
3.49523e-06   	1.035492e-02	4.982681e-02	6.429940e-02	1.670826e-01
3.50891e-06   	1.035001e-02	4.992633e-02	6.410892e-02	1.638435e-01
3.52259e-06   	1.034431e-02	4.831596e-02	6.266019e-02	1.606879e-01
3.53627e-06   	1.033082e-02	4.901504e-02	6.335807e-02	1.576029e-01
3.54995e-06   	1.032207e-02	4.911754e-02	6.407504e-02	1.544995e-01
3.56363e-06   	1.031037e-02	4.927177e-02	6.360048e-02	1.515459e-01
3.57731e-06   	1.030601e-02	4.868935e-02	6.317318e-02	1.485377e-01
3.59099e-06   	1.029130e-02	4.745368e-02	6.106235e-02	1.457137e-01
3.60467e-06   	1.028324e-02	4.764771e-02	6.212493e-02	1.429151e-01
3.61835e-06   	1.026529e-02	4.837619e-02	6.252824e-02	1.401403e-01
3.63203e-06   	1.026195e-02	4.950025e-02	6.412429e-02	1.374827e-01
3.64571e-06   	1.025044e-02	4.952373e-02	6.394285e-02	1.348402e-01
3.65939e-06   	1.024214e-02	4.866491e-02	6.365103e-02	1.322326e-01
3.67307e-06   	1.022639e-02	4.808092e-02	6.377245e-02	1.296280e-01
3.68674e-06   	1.022310e-02	4.802243e-02	6.128823e-02	1.270650e-01
3.70042e-06   	1.021112e-02	4.756943e-02	6.228221e-02	1.245397e-01
3.7141e-06    	1.020222e-02	4.766049e-02	6.292005e-02	1.220474e-01
3.72778e-06   	1.018179e-02	4.776579e-02	6.236339e-02	1.196973e-01
3.74146e-06   	1.017468e-02	4.713148e-02	6.134763e-02	1.173061e-01
3.75514e-06   	1.016487e-02	4.643726e-02	6.021226e-02	1.149617e-01
3.76882e-06   	1.015471e-02	4.718990e-02	6.124745e-02	1.126884e-01
3.7825e-06    	1.013653e-02	4.707872e-02	6.141723e-02	1.104483e-01
3.79618e-06   	1.012898e-02	4.665149e-02	6.132686e-02	1.082539e-01
3.80986e-06   	1.012232e-02	4.728508e-02	6.221008e-02	1.061400e-01
3.82354e-06   	1.010972e-02	4.660666e-02	6.133675e-02	1.039883e-01
3.83722e-06   	1.010342e-02	4.712429e-02	6.133058e-02	1.018605e-01
3.8509e-06    	1.008495e-02	4.650597e-02	6.114689e-02	9.979719e-02
3.86458e-06   	1.007931e-02	4.720507e-02	6.048059e-02	9.770671e-02
3.87826e-06   	1.006883e-02	4.700804e-02	6.121255e-02	9.573241e-02
3.89194e-06   	1.006410e-02	4.831208e-02	6.262183e-02	9.370408e-02
3.90562e-06   	1.004661e-02	4.753284e-02	5.976342e-02	9.181438e-02
3.9193e-06    	1.004134e-02	4.771205e-02	6.077478e-02	8.989316e-02
3.93298e-06   	1.003127e-02	4.829356e-02	6.101938e-02	8.812300e-02
3.94666e-06   	1.002557e-02	4.815632e-02	6.043077e-02	8.628911e-02
3.96034e-06   	1.000471e-02	4.807644e-02	6.178467e-02	8.450147e-02
3.97402e-06   	1.000039e-02	4.881801e-02	6.291492e-02	8.282466e-02
3.9877e-06    	9.991318e-03	4.894529e-02	6.281175e-02	8.109646e-02
4.00138e-06   	9.984917e-03	4.891046e-02	6.336763e-02	7.947333e-02
4.01506e-06   	9.964117e-03	4.858377e-02	6.262068e-02	7.788919e-02
4.02874e-06   	9.955660e-03	4.904725e-02	6.310181e-02	7.641204e-02
4.04242e-06   	9.948847e-03	4.869115e-02	6.263112e-02	7.489896e-02
4.0561e-06    	9.940227e-03	4.912085e-02	6.266620e-02	7.348652e-02
4.06978e-06   	9.923585e-03	5.043154e-02	6.433613e-02	7.213080e-02
4.08346e-06   	9.910003e-03	4.980977e-02	6.455900e-02	7.071108e-02
4.09714e-06   	9.905875e-03	5.007102e-02	6.387057e-02	6.941278e-02
4.11082e-06   	9.896005e-03	5.034516e-02	6.298243e-02	6.809434e-02
4.1245e-06    	9.888671e-03	5.013097e-02	6.326130e-02	6.675035e-02
4.13818e-06   	9.871735e-03	5.023343e-02	6.304720e-02	6.549843e-02
4.15186e-06   	9.868353e-03	5.090407e-02	6.337343e-02	6.440969e-02
4.16554e-06   	9.860207e-03	5.111539e-02	6.245094e-02	6.334985e-02
4.17922e-06   	9.852719e-03	5.110279e-02	6.407164e-02	6.216086e-02
4.1929e-06    	9.831296e-03	5.199142e-02	6.412505e-02	6.116013e-02
4.20658e-06   	9.828875e-03	5.187925e-02	6.467338e-02	5.997704e-02
4.22025e-06   	9.820450e-03	5.238191e-02	6.470803e-02	5.893164e-02
4.23393e-06   	9.813419e-03	5.104101e-02	6.457718e-02	5.784959e-02
4.24761e-06   	9.795056e-03	5.071813e-02	6.466674e-02	5.688121e-02
4.26129e-06   	9.792957e-03	5.067108e-02	6.411590e-02	5.589065e-02
4.27497e-06   	9.784900e-03	5.223537e-02	6.508925e-02	5.501960e-02
4.28865e-06   	9.776235e-03	5.312125e-02	6.463794e-02	5.424786e-02
4.30233e-06   	9.749379e-03	5.402403e-02	6.546058e-02	5.339795e-02
4.31601e-06   	9.743585e-03	5.452515e-02	6.619116e-02	5.261742e-02
4.32969e-06   	9.739580e-03	5.380881e-02	6.560907e-02	5.166733e-02
4.34337e-06   	9.728947e-03	5.444588e-02	6.595882e-02	5.093166e-02
4.35705e-06   	9.717413e-03	5.475427e-02	6.693878e-02	5.037085e-02
4.37073e-06   	9.707030e-03	5.493156e-02	6.696759e-02	4.965260e-02
4.38441e-06   	9.703270e-03	5.531280e-02	6.781512e-02	4.904423e-02
4.39809e-06   	9.692103e-03	5.593859e-02	6.856496e-02	4.823572e-02
4.41177e-06   	9.683919e-03	5.541303e-02	6.874080e-02	4.758594e-02
4.42545e-06   	9.667222e-03	5.573378e-02	6.870079e-02	4.698166e-02
4.43913e-06   	9.664510e-03	5.686305e-02	6.939577e-02	4.629085e-02
4.45281e-06   	9.654762e-03	5.660183e-02	6.890233e-02	4.564195e-02
4.46649e-06   	9.647089e-03	5.662908e-02	6.844216e-02	4.524888e-02
4.48017e-06   	9.632912e-03	5.623512e-02	6.914727e-02	4.456495e-02
4.49385e-06   	9.630672e-03	5.620806e-02	6.741893e-02	4.391981e-02
4.50753e-06   	9.620506e-03	5.582907e-02	6.919188e-02	4.349078e-02
4.52121e-06   	9.611971e-03	5.627992e-02	6.814416e-02	4.268180e-02
4.53489e-06   	9.594110e-03	5.713748e-02	6.846549e-02	4.222138e-02
4.54857e-06   	9.589972e-03	5.741381e-02	6.848169e-02	4.172201e-02
4.56225e-06   	9.581892e-03	5.675141e-02	6.841555e-02	4.121589e-02
4.57593e-06   	9.572120e-03	5.761648e-02	6.804127e-02	4.082262e-02
4.58961e-06   	9.553352e-03	5.770585e-02	6.742869e-02	4.024095e-02
4.60329e-06   	9.548940e-03	5.835303e-02	6.942498e-02	3.990478e-02
4.61697e-06   	9.542777e-03	5.950962e-02	6.912815e-02	3.944167e-02
4.63065e-06   	9.531366e-03	5.975896e-02	6.935663e-02	3.916918e-02
4.64433e-06   	9.524763e-03	5.999255e-02	7.044658e-02	3.874724e-02
4.65801e-06   	9.510313e-03	5.906085e-02	6.974261e-02	3.830545e-02
4.67169e-06   	9.505260e-03	5.840662e-02	6.927920e-02	3.811101e-02
4.68537e-06   	9.494562e-03	5.866934e-02	6.885420e-02	3.776470e-02
4.69905e-06   	9.490760e-03	5.979453e-02	6.938140e-02	3.736658e-02
4.71273e-06   	9.477475e-03	5.973053e-02	6.934783e-02	3.689690e-02
4.72641e-06   	9.472737e-03	6.016965e-02	6.987375e-02	3.684892e-02
4.74008e-06   	9.462030e-03	6.091954e-02	7.052963e-02	3.646678e-02
4.75376e-06   	9.457216e-03	6.023356e-02	6.953896e-02	3.627939e-02
4.76744e-06   	9.440966e-03	6.007859e-02	6.950026e-02	3.602966e-02
4.78112e-06   	9.437334e-03	6.018728e-02	6.954957e-02	3.575794e-02
4.7948e-06    	9.426394e-03	6.059330e-02	7.047844e-02	3.542000e-02
4.80848e-06   	9.421985e-03	6.052472e-02	6.988641e-02	3.519411e-02
4.82216e-06   	9.406724e-03	6.037593e-02	7.045225e-02	3.505537e-02
4.83584e-06   	9.401006e-03	6.177047e-02	7.118822e-02	3.474667e-02
4.84952e-06   	9.392955e-03	6.206565e-02	7.066830e-02	3.450289e-02
4.8632e-06    	9.386001e-03	6.201176e-02	7.165389e-02	3.428617e-02
4.87688e-06   	9.368612e-03	6.102947e-02	7.069134e-02	3.411753e-02
4.89056e-06   	9.359955e-03	6.089840e-02	7.170626e-02	3.401465e-02
4.90424e-06   	9.353410e-03	6.150549e-02	7.158765e-02	3.378691e-02
4.91792e-06   	9.346122e-03	6.133591e-02	7.040343e-02	3.336584e-02
4.9316e-06    	9.340806e-03	6.115217e-02	6.997893e-02	3.320091e-02
4.94528e-06   	9.328033e-03	6.116756e-02	6.903649e-02	3.303001e-02
4.95896e-06   	9.321944e-03	6.199117e-02	7.045611e-02	3.286212e-02
4.97264e-06   	9.314404e-03	6.114460e-02	7.043580e-02	3.273370e-02
4.98632e-06   	9.309323e-03	6.093949e-02	7.063894e-02	3.251215e-02
5e-06         	9.293109e-03	6.117001e-02	7.149750e-02	3.237035e-02
5.01368e-06   	9.288091e-03	6.172624e-02	7.086526e-02	3.235740e-02
5.02736e-06   	9.280810e-03	6.300562e-02	7.134849e-02	3.220657e-02
5.04104e-06   	9.275807e-03	6.234891e-02	7.130656e-02	3.197394e-02
5.05472e-06   	9.261574e-03	6.171740e-02	7.041902e-02	3.188693e-02
5.0684e-06    	9.257157e-03	6.191696e-02	7.039863e-02	3.177996e-02
5.08208e-06   	9.250208e-03	6.201991e-02	7.093961e-02	3.160479e-02
5.09576e-06   	9.244320e-03	6.176151e-02	7.100457e-02	3.145823e-02
5.10944e-06   	9.223729e-03	6.123679e-02	6.984733e-02	3.119569e-02
5.12312e-06   	9.215957e-03	6.102403e-02	7.043347e-02	3.114853e-02
5.1368e-06    	9.212415e-03	6.116672e-02	7.088939e-02	3.112080e-02
5.15048e-06   	9.205252e-03	6.074102e-02	6.998744e-02	3.093090e-02
5.16416e-06   	9.192897e-03	6.136244e-02	7.051123e-02	3.084949e-02
5.17784e-06   	9.183285e-03	6.187606e-02	7.106372e-02	3.079002e-02
5.19152e-06   	9.180149e-03	6.125076e-02	7.125181e-02	3.069854e-02
5.2052e-06    	9.172119e-03	6.131466e-02	7.065310e-02	3.062982e-02
5.21888e-06   	9.165391e-03	6.144109e-02	7.081640e-02	3.060107e-02
5.23256e-06   	9.149379e-03	6.159774e-02	7.073929e-02	3.045363e-02
5.24624e-06   	9.147162e-03	6.128625e-02	7.083908e-02	3.035250e-02
5.25992e-06   	9.139785e-03	6.217073e-02	7.078661e-02	3.037669e-02
5.27359e-06   	9.134123e-03	6.251728e-02	7.146943e-02	3.035672e-02
5.28727e-06   	9.119879e-03	6.260582e-02	7.173961e-02	3.034493e-02
5.30095e-06   	9.118472e-03	6.242845e-02	7.176734e-02	3.037243e-02
5.31463e-06   	9.110517e-03	6.270854e-02	7.294751e-02	3.024576e-02
5.32831e-06   	9.104263e-03	6.344855e-02	7.241768e-02	3.022055e-02
5.34199e-06   	9.086714e-03	6.332186e-02	7.220504e-02	3.032931e-02
5.35567e-06   	9.085535e-03	6.341300e-02	7.206277e-02	3.013854e-02
5.36935e-06   	9.079866e-03	6.349839e-02	7.241089e-02	3.033060e-02
5.38303e-06   	9.072152e-03	6.444411e-02	7.296460e-02	3.039679e-02
5.39671e-06   	9.053781e-03	6.380679e-02	7.346976e-02	3.044504e-02
5.41039e-06   	9.050433e-03	6.300640e-02	7.265009e-02	3.043183e-02
5.42407e-06   	9.045871e-03	6.328187e-02	7.330370e-02	3.034604e-02
5.43775e-06   	9.037102e-03	6.325014e-02	7.214589e-02	3.041841e-02
5.45143e-06   	9.026125e-03	6.337750e-02	7.311479e-02	3.046058e-02
5.46511e-06   	9.017196e-03	6.253515e-02	7.207150e-02	3.051077e-02
5.47879e-06   	9.013419e-03	6.347584e-02	7.312865e-02	3.050940e-02
5.49247e-06   	9.004414e-03	6.276822e-02	7.207759e-02	3.044681e-02
5.50615e-06   	8.997916e-03	6.277857e-02	7.148749e-02	3.044275e-02
5.51983e-06   	8.988352e-03	6.334884e-02	7.180046e-02	3.043691e-02
5.53351e-06   	8.984796e-03	6.322210e-02	7.268533e-02	3.041042e-02
5.54719e-06   	8.976148e-03	6.321306e-02	7.132463e-02	3.043641e-02
5.56087e-06   	8.969642e-03	6.333729e-02	7.278056e-02	3.034258e-02
5.57455e-06   	8.957156e-03	6.251848e-02	7.275176e-02	3.035542e-02
5.58823e-06   	8.955227e-03	6.257994e-02	7.256150e-02	3.032756e-02
5.60191e-06   	8.946374e-03	6.260096e-02	7.308513e-02	3.034654e-02
5.61559e-06   	8.939799e-03	6.271935e-02	7.260599e-02	3.033228e-02
5.62927e-06   	8.928250e-03	6.251454e-02	7.289771e-02	3.023660e-02
5.64295e-06   	8.924490e-03	6.343947e-02	7.363101e-02	3.037930e-02
5.65663e-06   	8.918291e-03	6.309626e-02	7.415628e-02	3.027207e-02
5.67031e-06   	8.909729e-03	6.387760e-02	7.456543e-02	3.052530e-02
5.68399e-06   	8.893320e-03	6.374440e-02	7.361281e-02	3.056684e-02
5.69767e-06   	8.888437e-03	6.401830e-02	7.410157e-02	3.050119e-02
5.71135e-06   	8.882916e-03	6.380096e-02	7.335041e-02	3.052030e-02
5.72503e-06   	8.874597e-03	6.332526e-02	7.289266e-02	3.047703e-02
5.73871e-06   	8.869444e-03	6.323486e-02	7.281735e-02	3.063161e-02
5.75239e-06   	8.860390e-03	6.359440e-02	7.245926e-02	3.053161e-02
5.76607e-06   	8.855158e-03	6.309098e-02	7.208779e-02	3.045135e-02
5.77975e-06   	8.846292e-03	6.305944e-02	7.219276e-02	3.050358e-02
5.79342e-06   	8.842816e-03	6.289180e-02	7.232915e-02	3.057012e-02
5.8071e-06    	8.829816e-03	6.340864e-02	7.307745e-02	3.065565e-02
5.82078e-06   	8.825903e-03	6.338213e-02	7.330579e-02	3.071825e-02
5.83446e-06   	8.817624e-03	6.332439e-02	7.299261e-02	3.060444e-02
5.84814e-06   	8.814524e-03	6.302631e-02	7.248106e-02	3.063597e-02
5.86182e-06   	8.803489e-03	6.409469e-02	7.294585e-02	3.059593e-02
5.8755e-06    	8.799826e-03	6.344102e-02	7.178398e-02	3.047786e-02
5.88918e-06   	8.791263e-03	6.373807e-02	7.194116e-02	3.060459e-02
5.90286e-06   	8.787271e-03	6.419151e-02	7.243980e-02	3.074058e-02
5.91654e-06   	8.772216e-03	6.414859e-02	7.353994e-02	3.082454e-02
5.93022e-06   	8.765739e-03	6.404680e-02	7.271137e-02	3.077846e-02
5.9439e-06    	8.759732e-03	6.465067e-02	7.321189e-02	3.076034e-02
5.95758e-06   	8.754688e-03	6.475213e-02	7.346399e-02	3.090417e-02
5.97126e-06   	8.743496e-03	6.457302e-02	7.314445e-02	3.091689e-02
5.98494e-06   	8.736736e-03	6.364416e-02	7.297521e-02	3.091007e-02
5.99862e-06   	8.731199e-03	6.432868e-02	7.305166e-02	3.104572e-02
6.0123e-06    	8.725270e-03	6.366492e-02	7.335181e-02	3.104688e-02
6.02598e-06   	8.719783e-03	6.351432e-02	7.329782e-02	3.110355e-02
6.03966e-06   	8.707017e-03	6.364684e-02	7.314873e-02	3.120370e-02
6.05334e-06   	8.702306e-03	6.443490e-02	7.343716e-02	3.126085e-02
6.06702e-06   	8.696489e-03	6.453113e-02	7.294907e-02	3.132249e-02
6.0807e-06    	8.692975e-03	6.440931e-02	7.275249e-02	3.141992e-02
6.09438e-06   	8.681476e-03	6.444185e-02	7.294321e-02	3.143031e-02
6.10806e-06   	8.678150e-03	6.377059e-02	7.292696e-02	3.161784e-02
6.12174e-06   	8.671539e-03	6.391039e-02	7.329267e-02	3.166403e-02
6.13542e-06   	8.667486e-03	6.361695e-02	7.302087e-02	3.160115e-02
6.1491e-06    	8.652813e-03	6.392067e-02	7.247041e-02	3.167260e-02
6.16278e-06   	8.649166e-03	6.326980e-02	7.258455e-02	3.169209e-02
6.17646e-06   	8.644816e-03	6.357708e-02	7.250059e-02	3.180267e-02
6.19014e-06   	8.639949e-03	6.352059e-02	7.265535e-02	3.181228e-02
6.20382e-06   	8.625608e-03	6.312372e-02	7.192034e-02	3.183575e-02
6.2175e-06    	8.620315e-03	6.371894e-02	7.274265e-02	3.185752e-02
6.23118e-06   	8.616747e-03	6.418331e-02	7.328268e-02	3.189890e-02
6.24486e-06   	8.610734e-03	6.421917e-02	7.307798e-02	3.189096e-02
6.25854e-06   	8.599414e-03	6.455871e-02	7.368196e-02	3.203438e-02
6.27222e-06   	8.590760e-03	6.443037e-02	7.344451e-02	3.193903e-02
6.2859e-06    	8.587525e-03	6.479990e-02	7.330885e-02	3.189517e-02
6.29958e-06   	8.581080e-03	6.372604e-02	7.314234e-02	3.192409e-02
6.31326e-06   	8.575733e-03	6.381212e-02	7.242142e-02	3.193254e-02
6.32693e-06   	8.565556e-03	6.316814e-02	7.182079e-02	3.193643e-02
6.34061e-06   	8.563371e-03	6.391991e-02	7.296626e-02	3.193492e-02
6.35429e-06   	8.556392e-03	6.323646e-02	7.325606e-02	3.192289e-02
6.36797e-06   	8.551117e-03	6.299898e-02	7.252725e-02	3.204705e-02
6.38165e-06   	8.538465e-03	6.331114e-02	7.225592e-02	3.200571e-02
6.39533e-06   	8.536869e-03	6.435887e-02	7.299674e-02	3.210911e-02
6.40901e-06   	8.530090e-03	6.453619e-02	7.301482e-02	3.210279e-02
6.42269e-06   	8.525364e-03	6.451863e-02	7.326096e-02	3.213365e-02
6.43637e-06   	8.513442e-03	6.455022e-02	7.300366e-02	3.208840e-02
6.45005e-06   	8.511947e-03	6.378194e-02	7.337526e-02	3.220956e-02
6.46373e-06   	8.507198e-03	6.320136e-02	7.287240e-02	3.222698e-02
6.47741e-06   	8.500766e-03	6.351473e-02	7.286197e-02	3.228594e-02
6.49109e-06   	8.484090e-03	6.386103e-02	7.276403e-02	3.220636e-02
6.50477e-06   	8.480332e-03	6.407954e-02	7.320203e-02	3.227161e-02
6.51845e-06   	8.476140e-03	6.449970e-02	7.363168e-02	3.232610e-02
6.53213e-06   	8.469473e-03	6.409075e-02	7.366625e-02	3.232966e-02
6.54581e-06   	8.462154e-03	6.435055e-02	7.312146e-02	3.235377e-02
6.55949e-06   	8.455750e-03	6.418114e-02	7.314566e-02	3.236902e-02
6.57317e-06   	8.451981e-03	6.385819e-02	7.361969e-02	3.235608e-02
6.58685e-06   	8.444545e-03	6.423120e-02	7.341215e-02	3.253521e-02
6.60053e-06   	8.439172e-03	6.450503e-02	7.360093e-02	3.253523e-02
6.61421e-06   	8.428989e-03	6.431798e-02	7.333108e-02	3.254532e-02